#------------------------------------------------------------------------------
#$Date: 2015-01-27 21:58:39 +0200 (Tue, 27 Jan 2015) $
#$Revision: 130149 $
#$URL: svn://www.crystallography.net/cod/cif/1/00/14/1001460.cif $
#------------------------------------------------------------------------------
#
# This file is available in the Crystallography Open Database (COD),
# http://www.crystallography.net/
#
# All data on this site have been placed in the public domain by the
# contributors.
#
data_1001460
loop_
_publ_author_name
'Licheron, M'
'Gervais, F'
'Coutures, J'
'Choisnet, J'
_publ_section_title
;
"Ba~2~BiO~4~" surprisingly found as a cubic double perovskite
Ba~2~(Ba~2/3~Bi~1/3~)BiO~6-d~
;
_journal_coden_ASTM              SSCOA4
_journal_issue                   9
_journal_name_full               'Solid State Communications'
_journal_page_first              759
_journal_page_last               763
_journal_paper_doi               10.1016/0038-1098(90)90241-3
_journal_volume                  75
_journal_year                    1990
_chemical_formula_structural     'Ba2 (Ba0.667 Bi0.333) Bi O5.67'
_chemical_formula_sum            'Ba2.667 Bi1.333 O5.67'
_chemical_name_systematic
;
Barium bismuth bismuth(V) oxide (2.67/0.33/1/5.67)
;
_space_group_IT_number           225
_symmetry_cell_setting           cubic
_symmetry_Int_Tables_number      225
_symmetry_space_group_name_Hall  '-F 4 2 3'
_symmetry_space_group_name_H-M   'F m -3 m'
_cell_angle_alpha                90
_cell_angle_beta                 90
_cell_angle_gamma                90
_cell_formula_units_Z            4
_cell_length_a                   8.7670(1)
_cell_length_b                   8.7670(1)
_cell_length_c                   8.7670(1)
_cell_volume                     673.8
_refine_ls_R_factor_all          0.016
_cod_database_code               1001460
loop_
_symmetry_equiv_pos_as_xyz
x,y,z
y,z,x
z,x,y
x,z,y
y,x,z
z,y,x
x,-y,-z
y,-z,-x
z,-x,-y
x,-z,-y
y,-x,-z
z,-y,-x
-x,y,-z
-y,z,-x
-z,x,-y
-x,z,-y
-y,x,-z
-z,y,-x
-x,-y,z
-y,-z,x
-z,-x,y
-x,-z,y
-y,-x,z
-z,-y,x
-x,-y,-z
-y,-z,-x
-z,-x,-y
-x,-z,-y
-y,-x,-z
-z,-y,-x
-x,y,z
-y,z,x
-z,x,y
-x,z,y
-y,x,z
-z,y,x
x,-y,z
y,-z,x
z,-x,y
x,-z,y
y,-x,z
z,-y,x
x,y,-z
y,z,-x
z,x,-y
x,z,-y
y,x,-z
z,y,-x
x,1/2+y,1/2+z
1/2+x,y,1/2+z
1/2+x,1/2+y,z
y,1/2+z,1/2+x
1/2+y,z,1/2+x
1/2+y,1/2+z,x
z,1/2+x,1/2+y
1/2+z,x,1/2+y
1/2+z,1/2+x,y
x,1/2+z,1/2+y
1/2+x,z,1/2+y
1/2+x,1/2+z,y
y,1/2+x,1/2+z
1/2+y,x,1/2+z
1/2+y,1/2+x,z
z,1/2+y,1/2+x
1/2+z,y,1/2+x
1/2+z,1/2+y,x
x,1/2-y,1/2-z
1/2+x,-y,1/2-z
1/2+x,1/2-y,-z
y,1/2-z,1/2-x
1/2+y,-z,1/2-x
1/2+y,1/2-z,-x
z,1/2-x,1/2-y
1/2+z,-x,1/2-y
1/2+z,1/2-x,-y
x,1/2-z,1/2-y
1/2+x,-z,1/2-y
1/2+x,1/2-z,-y
y,1/2-x,1/2-z
1/2+y,-x,1/2-z
1/2+y,1/2-x,-z
z,1/2-y,1/2-x
1/2+z,-y,1/2-x
1/2+z,1/2-y,-x
-x,1/2+y,1/2-z
1/2-x,y,1/2-z
1/2-x,1/2+y,-z
-y,1/2+z,1/2-x
1/2-y,z,1/2-x
1/2-y,1/2+z,-x
-z,1/2+x,1/2-y
1/2-z,x,1/2-y
1/2-z,1/2+x,-y
-x,1/2+z,1/2-y
1/2-x,z,1/2-y
1/2-x,1/2+z,-y
-y,1/2+x,1/2-z
1/2-y,x,1/2-z
1/2-y,1/2+x,-z
-z,1/2+y,1/2-x
1/2-z,y,1/2-x
1/2-z,1/2+y,-x
-x,1/2-y,1/2+z
1/2-x,-y,1/2+z
1/2-x,1/2-y,z
-y,1/2-z,1/2+x
1/2-y,-z,1/2+x
1/2-y,1/2-z,x
-z,1/2-x,1/2+y
1/2-z,-x,1/2+y
1/2-z,1/2-x,y
-x,1/2-z,1/2+y
1/2-x,-z,1/2+y
1/2-x,1/2-z,y
-y,1/2-x,1/2+z
1/2-y,-x,1/2+z
1/2-y,1/2-x,z
-z,1/2-y,1/2+x
1/2-z,-y,1/2+x
1/2-z,1/2-y,x
-x,1/2-y,1/2-z
1/2-x,-y,1/2-z
1/2-x,1/2-y,-z
-y,1/2-z,1/2-x
1/2-y,-z,1/2-x
1/2-y,1/2-z,-x
-z,1/2-x,1/2-y
1/2-z,-x,1/2-y
1/2-z,1/2-x,-y
-x,1/2-z,1/2-y
1/2-x,-z,1/2-y
1/2-x,1/2-z,-y
-y,1/2-x,1/2-z
1/2-y,-x,1/2-z
1/2-y,1/2-x,-z
-z,1/2-y,1/2-x
1/2-z,-y,1/2-x
1/2-z,1/2-y,-x
-x,1/2+y,1/2+z
1/2-x,y,1/2+z
1/2-x,1/2+y,z
-y,1/2+z,1/2+x
1/2-y,z,1/2+x
1/2-y,1/2+z,x
-z,1/2+x,1/2+y
1/2-z,x,1/2+y
1/2-z,1/2+x,y
-x,1/2+z,1/2+y
1/2-x,z,1/2+y
1/2-x,1/2+z,y
-y,1/2+x,1/2+z
1/2-y,x,1/2+z
1/2-y,1/2+x,z
-z,1/2+y,1/2+x
1/2-z,y,1/2+x
1/2-z,1/2+y,x
x,1/2-y,1/2+z
1/2+x,-y,1/2+z
1/2+x,1/2-y,z
y,1/2-z,1/2+x
1/2+y,-z,1/2+x
1/2+y,1/2-z,x
z,1/2-x,1/2+y
1/2+z,-x,1/2+y
1/2+z,1/2-x,y
x,1/2-z,1/2+y
1/2+x,-z,1/2+y
1/2+x,1/2-z,y
y,1/2-x,1/2+z
1/2+y,-x,1/2+z
1/2+y,1/2-x,z
z,1/2-y,1/2+x
1/2+z,-y,1/2+x
1/2+z,1/2-y,x
x,1/2+y,1/2-z
1/2+x,y,1/2-z
1/2+x,1/2+y,-z
y,1/2+z,1/2-x
1/2+y,z,1/2-x
1/2+y,1/2+z,-x
z,1/2+x,1/2-y
1/2+z,x,1/2-y
1/2+z,1/2+x,-y
x,1/2+z,1/2-y
1/2+x,z,1/2-y
1/2+x,1/2+z,-y
y,1/2+x,1/2-z
1/2+y,x,1/2-z
1/2+y,1/2+x,-z
z,1/2+y,1/2-x
1/2+z,y,1/2-x
1/2+z,1/2+y,-x
loop_
_atom_site_label
_atom_site_type_symbol
_atom_site_symmetry_multiplicity
_atom_site_Wyckoff_symbol
_atom_site_fract_x
_atom_site_fract_y
_atom_site_fract_z
_atom_site_occupancy
_atom_site_attached_hydrogens
_atom_site_calc_flag
Ba1 Ba2+ 8 c 0.25 0.25 0.25 1. 0 d
Ba2 Ba2+ 4 b 0.5 0.5 0.5 0.6667 0 d
Bi1 Bi3+ 4 b 0.5 0.5 0.5 0.3333 0 d
Bi2 Bi5+ 4 a 0. 0. 0. 1. 0 d
O1 O2- 24 e 0.215(1) 0. 0. 0.945 0 d
loop_
_atom_type_symbol
_atom_type_oxidation_number
Ba2+ 2.000
Bi3+ 3.000
Bi5+ 5.000
O2- -2.000
